! Touchstone file exported from HFSS 2023.1.0
!        File:           C:/Users/luhta/OneDrive/Documents/Ansoft/Project2.aedt
!        Generated:      6:39:57 PM  Mar 15, 2025
!        Design:         HFSSDesign1
!        Project:        Project2
!        Setup:          Setup1
!        Solution:       Sweep
!
# GHz S MA R 50.000000
! Terminal data exported
! Port[1] = stripline1_T1
! Port[2] = stripline1_T2
! Port[3] = stripline1_T3
! Port[4] = stripline1_T4
1                              0.418663857833988 179.970638915491 0.490408903934467 -0.0109600026863188 0.464163958055056 -0.0141742385802516 0.464090982211328 -0.0147134515420904 
                               0.490408903934449 -0.0109600026783159 0.385793956913873 179.970230744081 0.447729561986758 -0.012987696941043 0.447655469380741 -0.0153038644927568 
                               0.464163958055049 -0.0141742385904658 0.447729561986808 -0.0129876969660394 0.43129759852208 179.990076627816 0.519404086991432 0.00350393899685756 
                               0.464090982211356 -0.0147134515420474 0.447655469380786 -0.0153038645052472 0.519404086991472 0.00350393901030612 0.431150529950599 179.987114039088 
! Gamma     865.551413029872 867.028391083269 0                0                0                0                0                0                
!           0                0                968.846361636731 969.972333029855 -14.2013334779324 -14.0839222821783 -0.740103116854482 -0.713842552393802 
!           0                0                -14.2013334779238 -14.0839222822088 881.556877836607 883.036827893227 -67.6078574963248 -67.3799877369911 
!           0                0                -0.740103116839145 -0.713842552411127 -67.6078574963368 -67.3799877369569 977.832210171264 978.956024861809 
! Port Impedance         50               0                50               0                50               0                50               0                
1.018                          0.418664406564261 179.970889458064 0.490409082161346 -0.0110495001355864 0.464164560050138 -0.0141050641319259 0.464091359663819 -0.0147105897673943 
                               0.490409098921821 -0.0110484054812039 0.385795410477907 179.970475539011 0.447730983549863 -0.012864109732335 0.447656698822196 -0.0153207813771859 
                               0.464164546810419 -0.0140902639006141 0.447730940268892 -0.0128455577452728 0.431299267615789 179.99042845471  0.51940332608876 0.00343602035597551 
                               0.464091365942588 -0.0147275786325344 0.447656752976098 -0.0153379781581632 0.519403280053769 0.00346474511511271 0.431152948637854 179.987410751707 
! Gamma     873.27470845917  874.804342364021 0                0                0                0                0                0                
!           0                0                977.495245819312 978.666479948782 -14.3290100239933 -14.2089505688335 -0.746978086832417 -0.71991938395064 
!           0                0                -14.3289796532214 -14.2088513881139 889.423280044713 890.956527820274 -68.2137583416826 -67.9810802160887 
!           0                0                -0.746973910820774 -0.719909196412305 -68.2138602531691 -67.9815366075224 986.561337734562 987.73022665062  
! Port Impedance         50               0                50               0                50               0                50               0                
1.036                          0.418665087690129 179.971046682484 0.49040921433746 -0.0111518552548673 0.464165209406095 -0.0140789934711598 0.464091778062695 -0.0147416189956143 
                               0.490409247064285 -0.0111499275448794 0.385797021981775 179.970607063118 0.447732449999543 -0.0128008827571449 0.447657930523941 -0.0153843569498257 
                               0.464165192523473 -0.0140509371147257 0.447732377327194 -0.0127654658328894 0.431300994194394 179.990697945015 0.519402619701072 0.00339075388632507 
                               0.464091780305796 -0.0147737608322697 0.447658024767509 -0.0154173227254046 0.519402549866293 0.00344534516237931 0.431155324007585 179.987615639616 
! Gamma     880.931712582147 882.514767960785 0                0                0                0                0                0                
!           0                0                986.069985803829 987.287230160753 -14.4556157833641 -14.3328731008343 -0.753780062654128 -0.725935440620301 
!           0                0                -14.4555506276141 -14.3326893036805 897.22219160715  898.809433506495 -68.81452471345  -68.5770125758116 
!           0                0                -0.753771874718919 -0.725916314277924 -68.8147528454118 -68.5778622673723 995.215614049852 996.430395900819 
! Port Impedance         50               0                50               0                50               0                50               0                
1.054                          0.418665839806808 179.971118712932 0.490409298317294 -0.0112652278833847 0.46416587745518 -0.0140921426673739 0.464092214138368 -0.0148035313537871 
                               0.490409346109653 -0.0112627012018217 0.38579872085837 179.970634800209 0.447733924143822 -0.0127924207928087 0.447659137873064 -0.0154899610333804 
                               0.464165864922173 -0.0140523103327234 0.447733834012599 -0.0127417829375993 0.431302730887976 179.990892763935 0.519401975740277 0.00336534709094002 
                               0.464092203863101 -0.0148490723877125 0.447659259959951 -0.0155372875094446 0.519401900857946 0.00344305091709448 0.431157612349202 179.987738366291 
! Gamma     888.524155668411 890.160986971525 0                0                0                0                0                0                
!           0                0                994.572516719864 995.836061074475 -14.5811770333349 -14.4557130854735 -0.760511869187979 -0.73189303757857 
!           0                0                -14.5810741504463 -14.4554581530883 904.955368648071 906.596891973814 -69.4102897804515 -69.1678890015134 
!           0                0                -0.760499860050906 -0.731866122405448 -69.4106616694501 -69.1690731775755 1003.79699737492 1005.05802088011 
! Port Impedance         50               0                50               0                50               0                50               0                
1.072                          0.418666611451383 179.97111345833  0.490409333182594 -0.0113879574663774 0.464166540332468 -0.014140767964855 0.464092648458869 -0.0148934134872124 
                               0.490409395058229 -0.0113850397652721 0.385800447684508 179.97056804609  0.447735375285969 -0.0128333559152652 0.44766029930982 -0.0156331799694106 
                               0.464166538707072 -0.0140905698728425 0.447735277857952 -0.0127690878110637 0.431304438605939 179.991020241595 0.519401399733355 0.00335723630082396 
                               0.464092618815729 -0.0149506883297725 0.447660438649464 -0.0156934893484839 0.519401335428514 0.00345541585953567 0.43115977900418 179.987788032337 
! Gamma     896.053665380707 897.744294115493 0                0                0                0                0                0                
!           0                0                1003.00465899276 1004.31442279462 -14.7057186569787 -14.5774933207982 -0.76717619655178 -0.737794295071824 
!           0                0                -14.7055763639538 -14.5771796511632 912.624463593332 914.320225508603 -70.0011789185977 -69.7538117729988 
!           0                0                -0.767160577757994 -0.737760647596234 -70.0017062485941 -69.7552759570001 1012.30732952737 1013.61456220485 
! Port Impedance         50               0                50               0                50               0                50               0                
1.09                           0.418667360003721 179.971038544498 0.49040931901579 -0.0115185524472846 0.464167178427245 -0.0142212893174036 0.464093065002081 -0.015008467769955 
                               0.490409393933236 -0.0115154269933855 0.385802152986927 179.97041581712  0.447736778457368 -0.0129185778231761 0.447661397707922 -0.0158098374341101 
                               0.464167192989817 -0.0141620615300348 0.447736682298205 -0.012842208795003 0.431306085551398 179.991087338086 0.519400895196051 0.00336407851899581 
                               0.46409301059154 -0.0150759037173085 0.4476615452136  -0.0158817913482653 0.519400854296102 0.00348022369378717 0.431161797182515 179.987773156447 
! Gamma     903.521777557818 905.265960477284 0                0                0                0                0                0                
!           0                0                1011.3681303993  1012.72373894803 -14.8292642916688 -14.6982361895403 -0.773775603328173 -0.743641156976139 
!           0                0                -14.8290819725168 -14.6978751115798 920.231036081755 921.980732356841 -70.5873105324729 -70.3348813090057 
!           0                0                -0.773756602134566 -0.743601745555012 -70.5879999698471 -70.3365753600296 1020.74834811031 1022.10145372756 
! Port Impedance         50               0                50               0                50               0                50               0                
1.108                          0.418668050673111 179.970901263184 0.490409256704375 -0.0116556792977223 0.464167775880789 -0.0143303072944542 0.464093450762202 -0.0151460279876108 
                               0.490409343582463 -0.0116525061610512 0.385803796135416 179.97018677995  0.44773811371779 -0.0130432548180277 0.447662419810753 -0.0160160079720636 
                               0.464167810778527 -0.0142633089432632 0.447738025958321 -0.0129562467185263 0.431307646324535 179.991100620152 0.519400463960959 0.00338374179741954 
                               0.464093367466182 -0.0152221476509074 0.447662567757584 -0.0160983146000875 0.519400456800072 0.00351547586705426 0.431163646897571 179.987701668008 
! Gamma     910.929945714588 912.727233926925 0                0                0                0                0                0                
!           0                0                1019.66455668837 1021.06540714878 -14.9518364582672 -14.8179636514651 -0.780312520304827 -0.749435407727007 
!           0                0                -14.9516143913603 -14.8175654506566 927.776562572998 929.579687100301 -71.1687967779044 -70.9111961890716 
!           0                0                -0.780290375214309 -0.749391117722614 -71.1696507261509 -70.9130742439726 1029.12169728712 1030.52010305068 
! Port Impedance         50               0                50               0                50               0                50               0                
1.126                          0.418668655568515 179.970708535268 0.490409147772726 -0.0117981514323107 0.464168320128435 -0.0144646144517492 0.464093795389283 -0.0153035703739479 
                               0.490409245507568 -0.011795068996067 0.385805344322135 179.969889199199 0.447739365519739 -0.0132028470400096 0.447663355720582 -0.0162480245263947 
                               0.464168378508074 -0.0143910262064787 0.447739292005695 -0.0131065897813301 0.431309101109936 179.991066247499 0.51940010646478 0.0034142945867381 
                               0.464093680216583 -0.0153869929040301 0.447663497613226 -0.0163394441381548 0.519400141164168 0.00355937849356572 0.431165314010955 179.987580909068 
! Gamma     918.279549402681 920.129339303807 0                0                0                0                0                0                
!           0                0                1027.89548092735 1029.34079920019 -15.0734566733873 -14.9366972350557 -0.786789254614439 -0.755178687741497 
!           0                0                -15.0731958770624 -14.936271188052 935.262444798673 937.118340801806 -71.7457441967747 -71.4828531592795 
!           0                0                -0.786764211493197 -0.755130326571493 -71.7467614756261 -71.4848735310127 1037.42893726738 1038.87189176684 
! Port Impedance         50               0                50               0                50               0                50               0                
1.144                          0.418669152849182 179.970466885845 0.490408994238128 -0.0119449182019068 0.464168801483574 -0.0146212021122288 0.464094090860407 -0.0154787207691686 
                               0.490409101717817 -0.0119420446711703 0.385806771624754 179.969530900234 0.44774052213318 -0.013393113326726 0.447664198437632 -0.0165024810647361 
                               0.464168885612898 -0.0145421256870607 0.447740467563442 -0.0132889218174612 0.431310434942568 179.990989966977 0.519399821998901 0.00345399443418906 
                               0.464093941805368 -0.0155681619057427 0.447664328887395 -0.0166018302076789 0.519399904724171 0.00361032900432907 0.431166789378909 179.987417643749 
! Gamma     925.571901561571 927.473478435046 0                0                0                0                0                0                
!           0                0                1036.06237171905 1037.55126111268 -15.1941455468641 -15.0544580292322 -0.793207994168377 -0.760872507448904 
!           0                0                -15.1938476419957 -15.0540124454078 942.690017188767 944.597920990183 -72.3182542742043 -72.0499471270686 
!           0                0                -0.793180302887901 -0.760820809486597 -72.3194307280673 -72.0520721684238 1045.67155264995 1047.15817550616 
! Port Impedance         50               0                50               0                50               0                50               0                
1.162                          0.418669525951942 179.97018242916  0.490408798488157 -0.0120950541169352 0.464169212761062 -0.0147972633705047 0.464094331180874 -0.0156692585653687 
                               0.490408914605423 -0.0120924890118826 0.385808058150307 179.969119244603 0.447741575126828 -0.0136101128718765 0.447664943445742 -0.0167762312392473 
                               0.464169324139842 -0.0147137218935612 0.447741543180795 -0.013499225156628 0.431311637047129 179.990877113154 0.51939960892724 0.00350127632448133 
                               0.464094147094488 -0.0157635297089831 0.447665058056644 -0.0168823857549615 0.519399744124098 0.00366690276230699 0.431168068092076 179.987218073465 
! Gamma     932.808254976142 934.760830044557 0                0                0                0                0                0                
!           0                0                1044.16663041967 1045.69811300011 -15.3139228663229 -15.1712666756172 -0.799570812294315 -0.766518260039754 
!           0                0                -15.3135899545978 -15.1708089437592 950.060553392025 952.019631541077 -72.8864239271907 -72.6125711492194 
!           0                0                -0.799540723844578 -0.766463891347008 -72.8877529678028 -72.6147670898606 1053.85095975455 1055.38028385498 
! Port Impedance         50               0                50               0                50               0                50               0                
1.18                           0.418669762890983 179.969860861668 0.490408563176816 -0.0122477484127055 0.464169548937469 -0.0149901930161511 0.464094512113605 -0.0158731180029941 
                               0.490408686839802 -0.0122455740330755 0.385809189256043 179.968661115976 0.447742518902069 -0.0138502026956187 0.447665588341253 -0.0170663838811244 
                               0.464169688398539 -0.0149031321170111 0.44774251235669 -0.0137337791021236 0.431312700245337 179.990732614011 0.519399464874949 0.00355474089630544 
                               0.464094292586321 -0.0159711244855157 0.447665683604769 -0.0171782809224903 0.519399655484468 0.00372783984809278 0.431169148800632 179.986987856612 
! Gamma     939.989807945272 941.992549597211 0                0                0                0                0                0                
!           0                0                1052.20959747437 1053.78264890433 -15.432807670516 -15.2871433617195 -0.8058796725025 -0.772117233036616 
!           0                0                -15.4324422271727 -15.2866800003511 957.375271996625 959.384652497865 -73.4503459328315 -73.1708164162226 
!           0                0                -0.80584743652708 -0.772060795916512 -73.4518190210002 -73.1730531797886 1061.96851305974 1063.53952019682 
! Port Impedance         50               0                50               0                50               0                50               0                
1.198                          0.418669855625684 179.969507461728 0.490408291137103 -0.0124022950377172 0.464169806845612 -0.0151975849779545 0.464094630935012 -0.0160883873184913 
                               0.490408421278452 -0.0124005778872899 0.385810154843086 179.968162914744 0.447743350275647 -0.0141100317741589 0.447666132501929 -0.0173702960148153 
                               0.464169974646615 -0.0151078744549874 0.447743371112698 -0.0139891549154359 0.431313620425951 179.990561000676 0.519399386891149 0.00361314273154964 
                               0.464094376190509 -0.0161891260289983 0.447666205699882 -0.0174869352096465 0.519399634545913 0.00379203216168058 0.431170033117395 179.986732131541 
! Gamma     947.117709254799 949.169769112695 0                0                0                0                0                0                
!           0                0                1060.19255797503 1061.80613658644 -15.5508183129023 -15.4021078152867 -0.812136433317702 -0.777670618783719 
!           0                0                -15.550423092734 -15.4016445253505 964.635341546219 966.694139866989 -74.0101093033918 -73.724772235512 
!           0                0                -0.81210229602584 -0.77761265614402 -74.0117163745626 -73.7270232425216 1070.02551085274 1071.63716151532 
! Port Impedance         50               0                50               0                50               0                50               0                
1.216                          0.418669799491988 179.969127094642 0.490407985307957 -0.0125580831298186 0.464169984900773 -0.015417227796512 0.464094686215465 -0.0163133061599119 
                               0.490408120892394 -0.0125568752926925 0.385810948718544 179.9676305597   0.447744068107297 -0.0143865325636256 0.447666576792629 -0.0176855639615223 
                               0.464170180807302 -0.0153256637538924 0.447744117611481 -0.0142622080473519 0.431314396072387 179.990366420302 0.519399371588703 0.00367537885463956 
                               0.464094397014574 -0.0164158626460224 0.447666625907837 -0.0178060078510914 0.519399676791003 0.00385851096074202 0.431170725091695 179.986455541907 
! Gamma     954.193062538221 956.29359697561  0                0                0                0                0                0                
!           0                0                1068.11674653345 1069.76981731439 -15.6679725167663 -15.5161792999861 -0.818342853124601 -0.783179523945952 
!           0                0                -15.6675504722372 -15.5157210188203 971.841884936179 973.949225413976 -74.5657996146808 -74.2745260154334 
!           0                0                -0.818307055539109 -0.783120523467741 -74.5675294529281 -74.276767976853 1078.02320018531 1079.67445818954 
! Port Impedance         50               0                50               0                50               0                50               0                
1.234                          0.418669592692753 179.968724221962 0.490407648673666 -0.0127145880064035 0.464170082856147 -0.0156470985541483 0.464094677622582 -0.0165462616282656 
                               0.490407788704205 -0.0127139284702018 0.385811568021569 179.967069495415 0.447744672968646 -0.0146769105288366 0.447666923304692 -0.0180100130219565 
                               0.464170306216827 -0.0155544059126518 0.447744751817099 -0.0145500682539953 0.431315027843156 179.990152651286 0.519399415263639 0.00374047755981905 
                               0.464094355176712 -0.0166498067979806 0.447666946938943 -0.0181333868911365 0.51939977754703 0.00392643490774174 0.431171230747387 179.986162263568 
! Gamma     961.216930099434 963.365117761729 0                0                0                0                0                0                
!           0                0                1075.98335155317 1077.67490566908 -15.7842874230164 -15.6293766124996 -0.824500594983647 -0.78864497810156 
!           0                0                -15.7838416333971 -15.6289275682223 978.995983265576 981.151016479752 -75.11749929349  -74.8201632513353 
!           0                0                -0.824463371487293 -0.788585376210144 -75.1193398583321 -74.8223759568847 1085.96278121961 1087.65263380485 
! Port Impedance         50               0                50               0                50               0                50               0                
1.252                          0.418669235842649 179.968302914113 0.490407284214166 -0.0128713627034787 0.464170101585141 -0.0158853556369265 0.464094605745567 -0.016785783257515 
                               0.490407427737156 -0.0128712786254651 0.385812012708836 179.966484704144 0.447745166849865 -0.0149786321913833 0.4476671751261  -0.0183416861407891 
                               0.464170351399244 -0.0157921909268395 0.44774527519361 -0.0148501281251889 0.431315518200395 179.989923120231 0.519399513996628 0.00380758765120898 
                               0.464094251638891 -0.0168895697710697 0.447667172424986 -0.0184671773387077 0.519399932071939 0.00399507869754579 0.431171557678784 179.985856032411 
! Gamma     968.190336263554 970.385392094994 0                0                0                0                0                0                
!           0                0                1083.79351897373 1085.52258938527 -15.8997796316626 -15.7417180810618 -0.830611231382335 -0.794067941506791 
!           0                0                -15.8993132421488 -15.7412818466361 986.098679212039 988.300595831441 -75.6652878691936 -75.3617675147667 
!           0                0                -0.830572808528754 -0.794008127144256 -75.6672265794215 -75.3639336193597 1093.84541103879 1095.57288499605 
! Port Impedance         50               0                50               0                50               0                50               0                
1.27                           0.418668731563223 179.967866865562 0.490406894864732 -0.013028030067759 0.464170042888204 -0.0161303306267479 0.464094471938915 -0.0170305371863411 
                               0.490407040973775 -0.0130285379754159 0.385812285095072 179.965880721271 0.447745552900738 -0.0152894121376708 0.447667336139572 -0.0186788318904295 
                               0.464170317866371 -0.0160372849954529 0.447745690438655 -0.0151600304757779 0.431315871082185 179.989680920069 0.519399663738687 0.00387596815109355 
                               0.464094088058669 -0.0171338956256491 0.447667306723774 -0.0188056887287784 0.519400135625648 0.00406382229542882 0.431171714698747 179.98554017257  
! Gamma     975.114270314471 977.35545654543  0                0                0                0                0                0                
!           0                0                1091.54835555295 1093.3140292385  -16.0144652378475 -15.8532215654277 -0.836676248893683 -0.799449312104927 
!           0                0                -16.0139814076908 -15.8528011118161 993.150979989043 995.399021557546 -76.2092421940355 -75.8994204464452 
!           0                0                -0.836636844452057 -0.799389630305557 -76.211266172517 -75.9015252575686 1101.67220698862 1103.43638133473 
! Port Impedance         50               0                50               0                50               0                50               0                
1.288                          0.418668084123982 179.967419411856 0.490406483483772 -0.0131842753977405 0.464169909322086 -0.0163805195903035 0.46409427818383 -0.0172793197417089 
                               0.490406631322699 -0.0131853823294533 0.385812389444217 179.965261653437 0.447745835202972 -0.0156071993366128 0.447667410846053 -0.0190198920600338 
                               0.464170207940695 -0.0162881219627658 0.4477460012488  -0.0154776549669113 0.431316091614593 179.989428828937 0.519399860383008 0.00394497852450009 
                               0.464093866658093 -0.0173816546284697 0.447667354748656 -0.0191474223639999 0.519400383528586 0.00413214080765493 0.431171711533612 179.985217624597 
! Gamma     981.989689071084 984.276323574692 0                0                0                0                0                0                
!           0                0                1099.24893174539 1101.05035898558 -16.1283598631943 -15.9639044582223 -0.842697052719509 -0.804789931846622 
!           0                0                -16.1278617219351 -15.9635022061581 1000.15385993838 1002.44732701383 -76.7494366360958 -76.4332017534064 
!           0                0                -0.842656874925212 -0.804730687117916 -76.7515329192807 -76.4352330217234 1109.4442496089  1111.24426526879 
! Port Impedance         50               0                50               0                50               0                50               0                
1.306                          0.41866729912552 179.966963547978 0.490406052827557 -0.0133398396316353 0.464169704049458 -0.0166345739762638 0.464094026965877 -0.0175310506234805 
                               0.490406201592583 -0.0133415442097961 0.38581233160712 179.96463119863  0.447746018570855 -0.0159301630702363 0.447667404211107 -0.0193634890687355 
                               0.464170024599119 -0.0165432943131593 0.447746212113715 -0.0158011042741492 0.431316185859583 179.989169329406 0.519400099824653 0.00401406944140881 
                               0.464093590108218 -0.0176318363431851 0.447667321820535 -0.0194910584513502 0.519400671209109 0.00419959499822201 0.431171558560041 179.984890973263 
! Gamma     988.817519148169 991.148981533143 0                0                0                0                0                0                
!           0                0                1106.89628422842 1108.73268536294 -16.241478683139 -16.0737836876006 -0.848674971101079 -0.810090592383211 
!           0                0                -16.2409692940963 -16.0734015576051 1007.10826280439 1009.44652082351 -77.2859432484695 -76.9631892105391 
!           0                0                -0.848634218087183 -0.810032051896433 -77.2880989640799 -76.9651369255587 1117.16258520677 1118.99765211873 
! Port Impedance         50               0                50               0                50               0                50               0                
1.324                          0.418666383220887 179.966501947552 0.490405605530931 -0.0134945130633985 0.464169430707021 -0.0168912913022916 0.464093721167318 -0.017784765832675 
                               0.49040575447206 -0.0134968065051847 0.385812118701802 179.963992667649 0.447746108377453 -0.0162566787201073 0.447667321531935 -0.0197084134011876 
                               0.464169771335673 -0.0168015439075076 0.447746328136406 -0.0161286900462281 0.431316160595332 179.988904627797 0.519400378009671 0.00408277409239355 
                               0.464093261427774 -0.0178835425201411 0.447667213540116 -0.0198354433115814 0.51940099424131 0.00426582244447207 0.431171266579345 179.984562474703 
! Gamma     995.598658942458 997.974394710162 0                0                0                0                0                0                
!           0                0                1114.49141812112 1116.36208814462 -16.3538364508242 -16.1828757211327 -0.85461125958391 -0.815352040189752 
!           0                0                -16.3533187810592 -16.1825151814941 1014.01510373118 1016.39758693306 -77.8188319177629 -77.4894586665561 
!           0                0                -0.85457011897094 -0.815294436784901 -77.8210344339168 -77.4913148588237 1124.82822811773 1126.69763013291 
! Port Impedance         50               0                50               0                50               0                50               0                
1.342                          0.418665343871744 179.966036982502 0.490405144093069 -0.013648129569459 0.464169093290312 -0.0171496057722613 0.464093363972902 -0.018039610482458 
                               0.490405292514832 -0.0136509966285401 0.38581175883248 179.963349006424 0.447746110403863 -0.0165853136050551 0.447667168322917 -0.0200536112038644 
                               0.464169452041434 -0.0170617526252272 0.447746354876925 -0.0164589188666072 0.431316023125607 179.988636673312 0.519400690974999 0.00415070005883751 
                               0.464092883894707 -0.0181359799084761 0.447667035678324 -0.0201795768092841 0.519401348374532 0.0043305293228647 0.431170846625167 179.984234082714 
! Gamma     1002.33398037968 1004.75350343769 0                0                0                0                0                0                
!           0                0                1122.03530893618 1123.93962025997 -16.4654475180585 -16.2911965708141 -0.860507105127083 -0.820574981169955 